PNT
    36
  -0.0000000   3.6710000   0.7270000  -0.0000000   3.6710000  -0.7270000
  -0.0000000   4.9340000   1.4090000  -0.0000000   4.9340000  -1.4090000
  -0.0000000   6.1060000   0.7160000  -0.0000000   6.1060000  -0.7160000
  -0.0000000   2.4630000   1.4060000  -0.0000000   1.2240000   0.7280000
  -0.0000000   2.4630000  -1.4060000  -0.0000000   1.2240000  -0.7280000
  -0.0000000   4.9330000   2.4940000  -0.0000000   2.4640000   2.4920000
  -0.0000000   2.4640000  -2.4920000  -0.0000000   4.9330000  -2.4940000
  -0.0000000   7.0530000  -1.2450000  -0.0000000   7.0530000   1.2450000
  -0.0000000   0.0000000   1.4070000  -0.0000000  -1.2240000   0.7280000
  -0.0000000   0.0000000  -1.4070000  -0.0000000  -1.2240000  -0.7280000
  -0.0000000   0.0000000   2.4930000  -0.0000000   0.0000000  -2.4930000
  -0.0000000  -2.4630000   1.4060000  -0.0000000  -3.6710000   0.7270000
  -0.0000000  -2.4630000  -1.4060000  -0.0000000  -3.6710000  -0.7270000
  -0.0000000  -2.4640000   2.4920000  -0.0000000  -2.4640000  -2.4920000
  -0.0000000  -4.9340000   1.4090000  -0.0000000  -6.1060000   0.7160000
  -0.0000000  -4.9340000  -1.4090000  -0.0000000  -6.1060000  -0.7160000
  -0.0000000  -4.9330000   2.4940000  -0.0000000  -7.0530000   1.2450000
  -0.0000000  -7.0530000  -1.2450000  -0.0000000  -4.9330000  -2.4940000
