%VERSION  VERSION_STAMP = V0001.000  DATE = 04/06/26  17:56:42                  
%FLAG TITLE                                                                     
%FORMAT(20a4)                                                                   
PNT                                                                             
%FLAG POINTERS                                                                  
%FORMAT(10I8)                                                                   
      36       2      14      26      28      38      64      62       0       0
     197       1      26      38      62       2       2       2       2       0
       0       0       0       0       0       0       0       0      36       0
       0
%FLAG ATOM_NAME                                                                 
%FORMAT(20a4)                                                                   
C1  C2  C3  C4  C5  C6  C7  C8  C9  C10 H1  H2  H3  H4  H5  H6  C11 C12 C13 C14 
H7  H8  C15 C16 C17 C18 H9  H10 C19 C20 C21 C22 H11 H12 H13 H14 
%FLAG CHARGE                                                                    
%FORMAT(5E16.8)                                                                 
  2.98043939E+00  2.98043939E+00 -4.47022175E+00 -4.47022175E+00 -2.12778153E+00
 -2.12778153E+00 -5.40905287E+00  1.30156422E+00 -5.40905287E+00  1.30156422E+00
  2.71264447E+00  3.03100627E+00  3.03100627E+00  2.71264447E+00  2.44443043E+00
  2.44443043E+00 -3.49939227E+00  1.30156422E+00 -3.49939227E+00  1.30156422E+00
  2.57335321E+00  2.57335321E+00 -5.40905287E+00  2.98043939E+00 -5.40905287E+00
  2.98043939E+00  3.03100627E+00  3.03100627E+00 -4.47022175E+00 -2.12778153E+00
 -4.47022175E+00 -2.12778153E+00  2.71264447E+00  2.44443043E+00  2.44443043E+00
  2.71264447E+00
%FLAG ATOMIC_NUMBER                                                             
%FORMAT(10I8)                                                                   
       6       6       6       6       6       6       6       6       6       6
       1       1       1       1       1       1       6       6       6       6
       1       1       6       6       6       6       1       1       6       6
       6       6       1       1       1       1
%FLAG MASS                                                                      
%FORMAT(5E16.8)                                                                 
  1.20100000E+01  1.20100000E+01  1.20100000E+01  1.20100000E+01  1.20100000E+01
  1.20100000E+01  1.20100000E+01  1.20100000E+01  1.20100000E+01  1.20100000E+01
  1.00800000E+00  1.00800000E+00  1.00800000E+00  1.00800000E+00  1.00800000E+00
  1.00800000E+00  1.20100000E+01  1.20100000E+01  1.20100000E+01  1.20100000E+01
  1.00800000E+00  1.00800000E+00  1.20100000E+01  1.20100000E+01  1.20100000E+01
  1.20100000E+01  1.00800000E+00  1.00800000E+00  1.20100000E+01  1.20100000E+01
  1.20100000E+01  1.20100000E+01  1.00800000E+00  1.00800000E+00  1.00800000E+00
  1.00800000E+00
%FLAG ATOM_TYPE_INDEX                                                           
%FORMAT(10I8)                                                                   
       1       1       1       1       1       1       1       1       1       1
       2       2       2       2       2       2       1       1       1       1
       2       2       1       1       1       1       2       2       1       1
       1       1       2       2       2       2
%FLAG NUMBER_EXCLUDED_ATOMS                                                     
%FORMAT(10I8)                                                                   
      15      14      10       9       6       5       9      11       7       9
       1       1       1       1       1       1       8      11       6       9
       1       1       8      11       6       9       1       1       6       6
       4       4       1       1       1       1
%FLAG NONBONDED_PARM_INDEX                                                      
%FORMAT(10I8)                                                                   
       1       2       2       3
%FLAG RESIDUE_LABEL                                                             
%FORMAT(20a4)                                                                   
PNT 
%FLAG RESIDUE_POINTER                                                           
%FORMAT(10I8)                                                                   
       1
%FLAG BOND_FORCE_CONSTANT                                                       
%FORMAT(5E16.8)                                                                 
  3.54250000E+02  3.60690000E+02
%FLAG BOND_EQUIL_VALUE                                                          
%FORMAT(5E16.8)                                                                 
  1.39860000E+00  1.08600000E+00
%FLAG ANGLE_FORCE_CONSTANT                                                      
%FORMAT(5E16.8)                                                                 
  6.36700000E+01  4.49000000E+01
%FLAG ANGLE_EQUIL_VALUE                                                         
%FORMAT(5E16.8)                                                                 
  2.09474507E+00  2.09230160E+00
%FLAG DIHEDRAL_FORCE_CONSTANT                                                   
%FORMAT(5E16.8)                                                                 
  3.62500000E+00  1.10000000E+00
%FLAG DIHEDRAL_PERIODICITY                                                      
%FORMAT(5E16.8)                                                                 
  2.00000000E+00  2.00000000E+00
%FLAG DIHEDRAL_PHASE                                                            
%FORMAT(5E16.8)                                                                 
  3.14159400E+00  3.14159400E+00
%FLAG SCEE_SCALE_FACTOR                                                         
%FORMAT(5E16.8)                                                                 
  1.20000000E+00  0.00000000E+00
%FLAG SCNB_SCALE_FACTOR                                                         
%FORMAT(5E16.8)                                                                 
  2.00000000E+00  0.00000000E+00
%FLAG SOLTY                                                                     
%FORMAT(5E16.8)                                                                 
  0.00000000E+00  0.00000000E+00
%FLAG LENNARD_JONES_ACOEF                                                       
%FORMAT(5E16.8)                                                                 
  6.96551276E+05  7.52549148E+04  6.90855956E+03
%FLAG LENNARD_JONES_BCOEF                                                       
%FORMAT(5E16.8)                                                                 
  5.24668528E+02  1.09570372E+02  2.10929191E+01
%FLAG BONDS_INC_HYDROGEN                                                        
%FORMAT(10I8)                                                                   
       6      30       2       9      39       2      12      45       2      15
      42       2      18      33       2      24      36       2      48      60
       2      54      63       2      66      78       2      72      81       2
      84      96       2      87      99       2      90     105       2      93
     102       2
%FLAG BONDS_WITHOUT_HYDROGEN                                                    
%FORMAT(10I8)                                                                   
       0       3       1       0       6       1       0      18       1       3
       9       1       3      24       1       6      12       1       9      15
       1      12      15       1      18      21       1      21      27       1
      21      48       1      24      27       1      27      54       1      48
      51       1      51      57       1      51      66       1      54      57
       1      57      72       1      66      69       1      69      75       1
      69      84       1      72      75       1      75      90       1      84
      87       1      87      93       1      90      93       1
%FLAG ANGLES_INC_HYDROGEN                                                       
%FORMAT(10I8)                                                                   
       0       6      30       2       0      18      33       2       3       9
      39       2       3      24      36       2       6      12      45       2
       9      15      42       2      12       6      30       2      12      15
      42       2      15       9      39       2      15      12      45       2
      21      18      33       2      21      48      60       2      27      24
      36       2      27      54      63       2      51      48      60       2
      51      66      78       2      57      54      63       2      57      72
      81       2      69      66      78       2      69      84      96       2
      75      72      81       2      75      90     105       2      84      87
      99       2      87      84      96       2      87      93     102       2
      90      93     102       2      93      87      99       2      93      90
     105       2
%FLAG ANGLES_WITHOUT_HYDROGEN                                                   
%FORMAT(10I8)                                                                   
       0       3       9       1       0       3      24       1       0       6
      12       1       0      18      21       1       3       0       6       1
       3       0      18       1       3       9      15       1       3      24
      27       1       6       0      18       1       6      12      15       1
       9       3      24       1       9      15      12       1      18      21
      27       1      18      21      48       1      21      27      24       1
      21      27      54       1      21      48      51       1      24      27
      54       1      27      21      48       1      27      54      57       1
      48      51      57       1      48      51      66       1      51      57
      54       1      51      57      72       1      51      66      69       1
      54      57      72       1      57      51      66       1      57      72
      75       1      66      69      75       1      66      69      84       1
      69      75      72       1      69      75      90       1      69      84
      87       1      72      75      90       1      75      69      84       1
      75      90      93       1      84      87      93       1      87      93
      90       1
%FLAG DIHEDRALS_INC_HYDROGEN                                                    
%FORMAT(10I8)                                                                   
       0       3       9      39       1       0       3      24      36       1
       0       6      12      45       1       3       0       6      30       1
       3       0      18      33       1       3       9      15      42       1
       6       0      18      33       1       6      12      15      42       1
       9       3      24      36       1       9      15      12      45       1
      12      15       9      39       1      15      12       6      30       1
      18       0       6      30       1      18      21      48      60       1
      21      27      24      36       1      21      27      54      63       1
      24       3       9      39       1      24      27      54      63       1
      27      21      18      33       1      27      21      48      60       1
      30       6      12      45       1      33      18      21      48       1
      36      24      27      54       1      39       9      15      42       1
      42      15      12      45       1      48      51      66      78       1
      51      57      54      63       1      51      57      72      81       1
      54      57      72      81       1      57      51      48      60       1
      57      51      66      78       1      60      48      51      66       1
      63      54      57      72       1      66      69      84      96       1
      69      75      72      81       1      69      75      90     105       1
      69      84      87      99       1      72      75      90     105       1
      75      69      66      78       1      75      69      84      96       1
      75      90      93     102       1      78      66      69      84       1
      81      72      75      90       1      84      87      93     102       1
      87      93      90     105       1      90      93      87      99       1
      93      87      84      96       1      96      84      87      99       1
      99      87      93     102       1     102      93      90     105       1
       0      12      -6     -30       2       3      15      -9     -39       2
       6      15     -12     -45       2       9      12     -15     -42       2
       0      21     -18     -33       2       3      27     -24     -36       2
      21      51     -48     -60       2      27      57     -54     -63       2
      51      69     -66     -78       2      57      75     -72     -81       2
      69      87     -84     -96       2      84      93     -87     -99       2
      75      93     -90    -105       2      87      90     -93    -102       2
%FLAG DIHEDRALS_WITHOUT_HYDROGEN                                                
%FORMAT(10I8)                                                                   
       0       3       9      15       1       0       3      24      27       1
       0       6     -12      15       1       0      18     -21      27       1
       0      18      21      48       1       3       0       6      12       1
       3       0      18      21       1       3       9     -15      12       1
       3      24     -27      21       1       3      24      27      54       1
       6       0       3       9       1       6       0       3      24       1
       6       0      18      21       1       6      12     -15       9       1
      18       0       3       9       1       9       3      24      27       1
      18       0       6      12       1      15       9       3      24       1
      18       0       3      24       1      18      21     -27      24       1
      18      21      27      54       1      18      21      48      51       1
      21      27      54      57       1      21      48     -51      57       1
      21      48      51      66       1      24      27      21      48       1
      24      27      54      57       1      27      21      48      51       1
      27      54     -57      51       1      27      54      57      72       1
      48      21      27      54       1      48      51     -57      54       1
      48      51      57      72       1      48      51      66      69       1
      51      57      72      75       1      51      66     -69      75       1
      51      66      69      84       1      54      57      51      66       1
      54      57      72      75       1      57      51      66      69       1
      57      72     -75      69       1      57      72      75      90       1
      66      51      57      72       1      66      69     -75      72       1
      66      69      75      90       1      66      69      84      87       1
      69      75      90      93       1      69      84     -87      93       1
      72      75      69      84       1      72      75      90      93       1
      75      69      84      87       1      75      90     -93      87       1
      84      69      75      90       1      84      87     -93      90       1
      18       0      -6      -3       2       0       9      -3     -24       2
      18      27     -21     -48       2      21      24     -27     -54       2
      48      57     -51     -66       2      51      54     -57     -72       2
      66      75     -69     -84       2      69      72     -75     -90       2
%FLAG EXCLUDED_ATOMS_LIST                                                       
%FORMAT(10I8)                                                                   
       2       3       4       5       6       7       8       9      10      11
      12      13      14      16      17       3       4       5       6       7
       8       9      10      11      12      13      14      15      19       4
       5       6       7       8       9      11      12      15      16       5
       6       7       9      10      13      14      15      16       6       7
      11      14      15      16       9      11      14      15      16       8
       9      10      11      12      17      18      19      21       9      10
      12      13      17      18      19      20      21      22      23      10
      13      14      17      19      20      22      12      13      17      18
      19      20      21      22      25      16      17      19      15      16
       0      18      19      20      21      23      24      25      27      19
      20      21      22      23      24      25      26      27      28      29
      20      22      23      25      26      28      21      22      23      24
      25      26      27      28      31      23      25      24      25      26
      27      29      30      31      33      25      26      27      28      29
      30      31      32      33      34      36      26      28      29      31
      32      36      27      28      29      30      31      32      33      35
      36      29      31      30      31      32      33      34      35      31
      32      33      34      35      36      32      34      35      36      33
      34      35      36      34      35      36       0
%FLAG HBOND_ACOEF                                                               
%FORMAT(5E16.8)                                                                 

%FLAG HBOND_BCOEF                                                               
%FORMAT(5E16.8)                                                                 

%FLAG HBCUT                                                                     
%FORMAT(5E16.8)                                                                 

%FLAG AMBER_ATOM_TYPE                                                           
%FORMAT(20a4)                                                                   
ca  ca  ca  ca  ca  ca  ca  ca  ca  ca  ha  ha  ha  ha  ha  ha  ca  ca  ca  ca  
ha  ha  ca  ca  ca  ca  ha  ha  ca  ca  ca  ca  ha  ha  ha  ha  
%FLAG TREE_CHAIN_CLASSIFICATION                                                 
%FORMAT(20a4)                                                                   
BLA BLA BLA BLA BLA BLA BLA BLA BLA BLA BLA BLA BLA BLA BLA BLA BLA BLA BLA BLA 
BLA BLA BLA BLA BLA BLA BLA BLA BLA BLA BLA BLA BLA BLA BLA BLA 
%FLAG JOIN_ARRAY                                                                
%FORMAT(10I8)                                                                   
       0       0       0       0       0       0       0       0       0       0
       0       0       0       0       0       0       0       0       0       0
       0       0       0       0       0       0       0       0       0       0
       0       0       0       0       0       0
%FLAG IROTAT                                                                    
%FORMAT(10I8)                                                                   
       0       0       0       0       0       0       0       0       0       0
       0       0       0       0       0       0       0       0       0       0
       0       0       0       0       0       0       0       0       0       0
       0       0       0       0       0       0
%FLAG RADIUS_SET                                                                
%FORMAT(1a80)                                                                   
modified Bondi radii (mbondi)                                                   
%FLAG RADII                                                                     
%FORMAT(5E16.8)                                                                 
  1.70000000E+00  1.70000000E+00  1.70000000E+00  1.70000000E+00  1.70000000E+00
  1.70000000E+00  1.70000000E+00  1.70000000E+00  1.70000000E+00  1.70000000E+00
  1.30000000E+00  1.30000000E+00  1.30000000E+00  1.30000000E+00  1.30000000E+00
  1.30000000E+00  1.70000000E+00  1.70000000E+00  1.70000000E+00  1.70000000E+00
  1.30000000E+00  1.30000000E+00  1.70000000E+00  1.70000000E+00  1.70000000E+00
  1.70000000E+00  1.30000000E+00  1.30000000E+00  1.70000000E+00  1.70000000E+00
  1.70000000E+00  1.70000000E+00  1.30000000E+00  1.30000000E+00  1.30000000E+00
  1.30000000E+00
%FLAG SCREEN                                                                    
%FORMAT(5E16.8)                                                                 
  7.20000000E-01  7.20000000E-01  7.20000000E-01  7.20000000E-01  7.20000000E-01
  7.20000000E-01  7.20000000E-01  7.20000000E-01  7.20000000E-01  7.20000000E-01
  8.50000000E-01  8.50000000E-01  8.50000000E-01  8.50000000E-01  8.50000000E-01
  8.50000000E-01  7.20000000E-01  7.20000000E-01  7.20000000E-01  7.20000000E-01
  8.50000000E-01  8.50000000E-01  7.20000000E-01  7.20000000E-01  7.20000000E-01
  7.20000000E-01  8.50000000E-01  8.50000000E-01  7.20000000E-01  7.20000000E-01
  7.20000000E-01  7.20000000E-01  8.50000000E-01  8.50000000E-01  8.50000000E-01
  8.50000000E-01
%FLAG IPOL                                                                      
%FORMAT(1I8)                                                                    
       0
